 *******************************************************************************
 ** Site#: 22060        For non-commercial use only     Version 15.089M 64BITS**
 *******************************************************************************
 ** Cite this work as:                                                        **
 **                                                                           **
 ** (a) MOPAC2012, James J. P. Stewart, Stewart Computational Chemistry,      **
 **  Version 15.089M web: HTTP://OpenMOPAC.net         Days remaining: 313    **
 **                                                                           **
 **                                 AND                                       **
 **                                                                           **
 ** (b) Maia, J.D.C., et al., J. Chem. Theory Comput. 2012, 8, 3072-3081.     **
 **                DOI: 10.1021/ct3004645.                                    **
 *******************************************************************************
 **                                                                           **
 **                                MOPAC2012                                  **
 **                                                                           **
 *******************************************************************************

                            PM7 CALCULATION RESULTS


 *******************************************************************************
 *  CALCULATION DONE:                                Thu May 21 21:17:34 2015  *
 *  PM7        - The PM7 Hamiltonian to be used
 *  DOUBLET    - SPIN STATE DEFINED AS A DOUBLET
 *  UHF        - UNRESTRICTED HARTREE-FOCK CALCULATION
 *
 *
 *
 *                 CHARGE ON SYSTEM =     1
 *
 *
 *
 *  T=         - A TIME OF 172800.0 SECONDS REQUESTED
 *  DUMP=N     - RESTART FILE WRITTEN EVERY  7200.000 SECONDS
 *  AUX        - OUTPUT AUXILIARY INFORMATION
 *******************************************************************************
PM7 AUX UHF CHARGE=1 DOUBLET

 Divinylbenzene cation, single point, PM7/(default restricted basis)
   ATOM   CHEMICAL          X               Y               Z
  NUMBER   SYMBOL      (ANGSTROMS)     (ANGSTROMS)     (ANGSTROMS)
 
     1       C          0.27867948  *  -1.36683162  *   0.00000000  *
     2       C          1.32303041  *  -0.44173575  *   0.00000000  *
     3       C          1.04434506  *   0.92484978  *   0.00000000  *
     4       C         -0.27867948  *   1.36683162  *   0.00000000  *
     5       C         -1.32303041  *   0.44173575  *   0.00000000  *
     6       C         -1.04434506  *  -0.92484978  *   0.00000000  *
     7       H          2.36595443  *  -0.79037726  *   0.00000000  *
     8       H          1.86746094  *   1.65407997  *   0.00000000  *
     9       H         -2.36595443  *   0.79037726  *   0.00000000  *
    10       H         -1.86746094  *  -1.65407997  *   0.00000000  *
    11       C         -0.58659169  *   2.87589931  *   0.00000000  *
    12       C          0.36350188  *   3.80076420  *   0.00000000  *
    13       H         -1.65647768  *   3.12394312  *   0.00000000  *
    14       H          0.14429560  *   4.87693235  *   0.00000000  *
    15       H          1.43338788  *   3.55272039  *   0.00000000  *
    16       C          0.58659169  *  -2.87589931  *   0.00000000  *
    17       C         -0.36350188  *  -3.80076420  *   0.00000000  *
    18       H          1.65647768  *  -3.12394312  *   0.00000000  *
    19       H         -0.14429560  *  -4.87693235  *   0.00000000  *
    20       H         -1.43338788  *  -3.55272039  *   0.00000000  *
 


          CARTESIAN COORDINATES 

    NO.       ATOM         X         Y         Z

     1         C        0.2787   -1.3668    0.0000
     2         C        1.3230   -0.4417    0.0000
     3         C        1.0443    0.9248    0.0000
     4         C       -0.2787    1.3668    0.0000
     5         C       -1.3230    0.4417    0.0000
     6         C       -1.0443   -0.9248    0.0000
     7         H        2.3660   -0.7904    0.0000
     8         H        1.8675    1.6541    0.0000
     9         H       -2.3660    0.7904    0.0000
    10         H       -1.8675   -1.6541    0.0000
    11         C       -0.5866    2.8759    0.0000
    12         C        0.3635    3.8008    0.0000
    13         H       -1.6565    3.1239    0.0000
    14         H        0.1443    4.8769    0.0000
    15         H        1.4334    3.5527    0.0000
    16         C        0.5866   -2.8759    0.0000
    17         C       -0.3635   -3.8008    0.0000
    18         H        1.6565   -3.1239    0.0000
    19         H       -0.1443   -4.8769    0.0000
    20         H       -1.4334   -3.5527    0.0000

     ===================== shared-memory parallel CPU Section ======================
     **                                                                           **
     **  MOPAC calculations will run in shared-memory parallel CPUs               **
     **                                                                           **
     **  Number of Threads =  2                                                   **
     **                                                                           **
     **                                                                           **
     **  For information on this work, see:                                       **
     **                                                                           **
     **  Maia, J.D.C., et al., J. Chem. Theory Comput. 2012, 8, 3072-3081.        **
     **        DOI: 10.1021/ct3004645.                                            **
     **                                                                           **
     ===================== shared-memory parallel CPU Section ======================
      


 General Reference for PM7:
 "Optimization of Parameters for Semiempirical Methods VI: More Modifications to the 
 NDDO Approximations and Re-optimization of Parameters", J. J. P. Stewart, J. Mol. Mod., 1:32, 19 (2013)
 http://www.springerlink.com/openurl.asp?genre=article&id=doi:10.1007/s00894-012-1667-x

           Empirical Formula: C10 H10  =    20 atoms



      MOLECULAR POINT GROUP   :   C2h 


 DOUBLET STATE CALCULATION


          UHF CALCULATION, NO. OF ALPHA ELECTRONS =   25
                           NO. OF BETA  ELECTRONS =   24
      Geometry optimization using EF

          DIAGONAL MATRIX USED AS START HESSIAN

 CYCLE:     1 TIME:   0.016 TIME LEFT:  2.00D  GRAD.:   229.337 HEAT:  255.2792
 CYCLE:     2 TIME:   0.016 TIME LEFT:  2.00D  GRAD.:    68.196 HEAT:  243.5172
 CYCLE:     3 TIME:   0.016 TIME LEFT:  2.00D  GRAD.:    29.049 HEAT:  242.3848
 CYCLE:     4 TIME:   0.008 TIME LEFT:  2.00D  GRAD.:    42.311 HEAT:  241.9552
 CYCLE:     5 TIME:   0.000 TIME LEFT:  2.00D  GRAD.:    45.749 HEAT:  241.6983
 CYCLE:     6 TIME:   0.008 TIME LEFT:  2.00D  GRAD.:    24.301 HEAT:  241.2896
 CYCLE:     7 TIME:   0.008 TIME LEFT:  2.00D  GRAD.:    11.934 HEAT:  241.0762
 CYCLE:     8 TIME:   0.008 TIME LEFT:  2.00D  GRAD.:    11.135 HEAT:  240.9828
 CYCLE:     9 TIME:   0.008 TIME LEFT:  2.00D  GRAD.:     9.210 HEAT:  240.8746
 CYCLE:    10 TIME:   0.008 TIME LEFT:  2.00D  GRAD.:    16.478 HEAT:  240.8725
 CYCLE:    11 TIME:   0.008 TIME LEFT:  2.00D  GRAD.:     4.974 HEAT:  240.8090
 CYCLE:    12 TIME:   0.008 TIME LEFT:  2.00D  GRAD.:     4.508 HEAT:  240.7827
 CYCLE:    13 TIME:   0.000 TIME LEFT:  2.00D  GRAD.:    10.513 HEAT:  240.7386
 CYCLE:    14 TIME:   0.008 TIME LEFT:  2.00D  GRAD.:     8.301 HEAT:  240.7114
 CYCLE:    15 TIME:   0.000 TIME LEFT:  2.00D  GRAD.:     5.831 HEAT:  240.6856
 CYCLE:    16 TIME:   0.016 TIME LEFT:  2.00D  GRAD.:     8.053 HEAT:  240.6813
 CYCLE:    17 TIME:   0.000 TIME LEFT:  2.00D  GRAD.:     2.762 HEAT:  240.6584
 CYCLE:    18 TIME:   0.008 TIME LEFT:  2.00D  GRAD.:     2.159 HEAT:  240.6448
 CYCLE:    19 TIME:   0.000 TIME LEFT:  2.00D  GRAD.:     2.190 HEAT:  240.6324
 CYCLE:    20 TIME:   0.008 TIME LEFT:  2.00D  GRAD.:     2.446 HEAT:  240.6248
 CYCLE:    21 TIME:   0.008 TIME LEFT:  2.00D  GRAD.:     2.415 HEAT:  240.6243
 CYCLE:    22 TIME:   0.000 TIME LEFT:  2.00D  GRAD.:     1.472 HEAT:  240.6211
 CYCLE:    23 TIME:   0.008 TIME LEFT:  2.00D  GRAD.:     0.985 HEAT:  240.6204

     GRADIENT =  0.98504  IS LESS THAN CUTOFF =  1.00000



 -------------------------------------------------------------------------------
PM7 AUX UHF CHARGE=1 DOUBLET

 Divinylbenzene cation, single point, PM7/(default restricted basis)


     GEOMETRY OPTIMISED USING EIGENVECTOR FOLLOWING (EF).     
     SCF FIELD WAS ACHIEVED                                   


                              PM7 CALCULATION
                                                       MOPAC2012 (Version: 15.089M)
                                                       Thu May 21 21:17:34 2015
                                                       No. of days left = 313




          FINAL HEAT OF FORMATION =        240.62038 KCAL/MOL =    1006.75567 KJ/MOL


          TOTAL ENERGY            =      -1353.76139 EV
          ELECTRONIC ENERGY       =      -6908.31811 EV  POINT GROUP:     C2h 
          CORE-CORE REPULSION     =       5554.55672 EV
          COSMO AREA              =        184.39 SQUARE ANGSTROMS
          COSMO VOLUME            =        182.15 CUBIC ANGSTROMS

          GRADIENT NORM           =          0.98504
          IONIZATION POTENTIAL    =         13.583701 EV
          ALPHA SOMO LUMO (EV)    =        -13.584 -5.884
          BETA  SOMO LUMO (EV)    =        -14.240 -7.482
          NO. OF ALPHA ELECTRONS  =         25
          NO. OF BETA  ELECTRONS  =         24
          MOLECULAR WEIGHT        =        130.189

          MOLECULAR DIMENSIONS (Angstroms)

            Atom       Atom       Distance
            H    19    H    14     9.68036
            H     9    H     7     4.74440
            C    16    C     1     0.00110


          SCF CALCULATIONS        =         29
 
          WALL-CLOCK TIME         =          0.188 SECONDS
          COMPUTATION TIME        =          0.323 SECONDS




   ATOM   CHEMICAL          X               Y               Z
  NUMBER   SYMBOL      (ANGSTROMS)     (ANGSTROMS)     (ANGSTROMS)
 
     1       C          0.25584550  *  -1.39824448  *  -0.00060088  *
     2       C          1.32873911  *  -0.44763862  *   0.00020460  *
     3       C          1.08321557  *   0.89703938  *   0.00011957  *
     4       C         -0.25548158  *   1.39826554  *  -0.00038653  *
     5       C         -1.32843577  *   0.44768235  *   0.00005439  *
     6       C         -1.08291834  *  -0.89696177  *   0.00027428  *
     7       H          2.36079915  *  -0.82299081  *  -0.00005206  *
     8       H          1.91925921  *   1.60695528  *   0.00002501  *
     9       H         -2.36055791  *   0.82291144  *   0.00000310  *
    10       H         -1.91890174  *  -1.60670843  *  -0.00007813  *
    11       C         -0.56557844  *   2.78712327  *   0.00042540  *
    12       C          0.35371792  *   3.78771698  *  -0.00028582  *
    13       H         -1.63681560  *   3.05188090  *   0.00001833  *
    14       H          0.06891504  *   4.83965464  *   0.00003269  *
    15       H          1.42730277  *   3.63826917  *   0.00000061  *
    16       C          0.56526103  *  -2.78712279  *   0.00049681  *
    17       C         -0.35412030  *  -3.78768046  *  -0.00031731  *
    18       H          1.63632002  *  -3.05262599  *  -0.00002851  *
    19       H         -0.06947063  *  -4.83971787  *   0.00007368  *
    20       H         -1.42769502  *  -3.63824762  *   0.00005883  *

                             CARTESIAN COORDINATES

   1    C        0.255845503    -1.398244484    -0.000600885
   2    C        1.328739107    -0.447638623     0.000204596
   3    C        1.083215566     0.897039384     0.000119568
   4    C       -0.255481583     1.398265545    -0.000386533
   5    C       -1.328435770     0.447682347     0.000054387
   6    C       -1.082918338    -0.896961771     0.000274280
   7    H        2.360799152    -0.822990814    -0.000052063
   8    H        1.919259212     1.606955285     0.000025005
   9    H       -2.360557911     0.822911444     0.000003097
  10    H       -1.918901736    -1.606708428    -0.000078133
  11    C       -0.565578435     2.787123270     0.000425403
  12    C        0.353717920     3.787716980    -0.000285822
  13    H       -1.636815601     3.051880897     0.000018329
  14    H        0.068915037     4.839654639     0.000032689
  15    H        1.427302771     3.638269171     0.000000612
  16    C        0.565261026    -2.787122788     0.000496810
  17    C       -0.354120298    -3.787680462    -0.000317313
  18    H        1.636320017    -3.052625991    -0.000028509
  19    H       -0.069470634    -4.839717870     0.000073685
  20    H       -1.427695023    -3.638247625     0.000058825


           Empirical Formula: C10 H10  =    20 atoms



      MOLECULAR POINT GROUP   :   C2h 


          ALPHA EIGENVALUES  
 -35.59335 -33.30322 -31.66441 -30.94339 -29.18040 -27.20156 -25.74618 -24.19990
 -23.70087 -21.65782 -21.31432 -20.05692 -19.53711 -19.29702 -19.00064 -18.73435
 -18.21901 -17.76136 -16.78228 -16.71504 -16.70483 -16.20964 -15.12850 -14.78836
 -13.58370  -5.88352  -4.40007  -3.93989  -3.11167  -2.18162  -0.89407  -0.73712
  -0.39670  -0.32078  -0.20786   0.00510   0.48222   0.82956   0.96167   0.99795
   1.10642   1.30666   1.37308   1.52177   1.58001   1.59543   1.84094   1.84698
   1.95031   1.96740


           BETA EIGENVALUES 
 -35.51782 -33.22857 -31.58755 -30.92598 -29.00111 -27.14632 -25.68051 -24.15870
 -23.65346 -21.62086 -21.27476 -20.00449 -19.48534 -19.24241 -18.98803 -18.21119
 -18.15049 -17.72593 -16.75314 -16.66192 -16.15713 -16.08259 -14.98546 -14.24014
  -7.48171  -4.84703  -4.05306  -3.50896  -2.66429  -1.91631  -0.85104  -0.69727
  -0.36239  -0.28183  -0.12945   0.06671   0.51913   0.86304   0.98206   1.02708
   1.12095   1.34880   1.38745   1.52969   1.59271   1.60503   1.91878   1.92071
   1.96539   1.98784


              NET ATOMIC CHARGES AND DIPOLE CONTRIBUTIONS

  ATOM NO.   TYPE          CHARGE      No. of ELECS.   s-Pop       p-Pop       
    1          C           0.138714        3.8613     1.09498     2.76630
    2          C          -0.124052        4.1241     1.10183     3.02222
    3          C          -0.137896        4.1379     1.09704     3.04085
    4          C           0.139153        3.8608     1.09505     2.76580
    5          C          -0.124508        4.1245     1.10181     3.02269
    6          C          -0.137515        4.1375     1.09707     3.04045
    7          H           0.193920        0.8061     0.80608
    8          H           0.190002        0.8100     0.81000
    9          H           0.193950        0.8060     0.80605
   10          H           0.189927        0.8101     0.81007
   11          C          -0.205298        4.2053     1.08748     3.11781
   12          C          -0.088532        4.0885     1.13204     2.95649
   13          H           0.192652        0.8073     0.80735
   14          H           0.180728        0.8193     0.81927
   15          H           0.159428        0.8406     0.84057
   16          C          -0.205047        4.2050     1.08748     3.11757
   17          C          -0.088479        4.0885     1.13207     2.95641
   18          H           0.192649        0.8074     0.80735
   19          H           0.180757        0.8192     0.81924
   20          H           0.159447        0.8406     0.84055
 DIPOLE           X         Y         Z       TOTAL
 POINT-CHG.     0.001    -0.005    -0.002     0.005
 HYBRID        -0.000    -0.001    -0.001     0.002
 SUM            0.001    -0.006    -0.003     0.006


          ATOMIC ORBITAL ELECTRON POPULATIONS

     Atom    s        px        py        pz   
    1  C   1.09498   0.97451   0.98666   0.80513
    2  C   1.10183   1.08774   0.99425   0.94024
    3  C   1.09704   1.04309   1.03944   0.95833
    4  C   1.09505   0.97443   0.98669   0.80468
    5  C   1.10181   1.08779   0.99428   0.94063
    6  C   1.09707   1.04302   1.03946   0.95797
    7  H   0.80608
    8  H   0.81000
    9  H   0.80605
   10  H   0.81007
   11  C   1.08748   1.11948   0.97043   1.02791
   12  C   1.13204   1.09343   1.09422   0.76884
   13  H   0.80735
   14  H   0.81927
   15  H   0.84057
   16  C   1.08748   1.11952   0.97049   1.02756
   17  C   1.13207   1.09346   1.09422   0.76873
   18  H   0.80735
   19  H   0.81924
   20  H   0.84055


                    (SZ)    =    0.500000
                    (S**2)  =    0.904023


          ATOMIC ORBITAL SPIN POPULATIONS

    Atom   Total    s     px     py     pz   
         Atomic
    1  C  0.2851  0.007  0.008  0.011  0.259
    2  C  0.0169 -0.001 -0.003 -0.002  0.023
    3  C -0.0010 -0.001 -0.005 -0.001  0.007
    4  C  0.2850  0.007  0.008  0.011  0.259
    5  C  0.0166 -0.001 -0.003 -0.002  0.023
    6  C -0.0007 -0.001 -0.005 -0.001  0.007
    7  H -0.0007 -0.001
    8  H -0.0001 -0.000
    9  H -0.0006 -0.001
   10  H -0.0001 -0.000
   11  C -0.1757 -0.007 -0.009 -0.014 -0.146
   12  C  0.3929  0.010  0.013  0.013  0.357
   13  H  0.0052  0.005
   14  H -0.0115 -0.011
   15  H -0.0114 -0.011
   16  C -0.1760 -0.007 -0.009 -0.014 -0.146
   17  C  0.3939  0.010  0.013  0.013  0.358
   18  H  0.0052  0.005
   19  H -0.0115 -0.012
   20  H -0.0115 -0.011

          JOB ENDED NORMALLY



 TOTAL JOB TIME:             0.20 SECONDS

 == MOPAC DONE ==
