 *******************************************************************************
 ** Site#: 22060        For non-commercial use only     Version 15.089M 64BITS**
 *******************************************************************************
 ** Cite this work as:                                                        **
 **                                                                           **
 ** (a) MOPAC2012, James J. P. Stewart, Stewart Computational Chemistry,      **
 **  Version 15.089M web: HTTP://OpenMOPAC.net         Days remaining: 313    **
 **                                                                           **
 **                                 AND                                       **
 **                                                                           **
 ** (b) Maia, J.D.C., et al., J. Chem. Theory Comput. 2012, 8, 3072-3081.     **
 **                DOI: 10.1021/ct3004645.                                    **
 *******************************************************************************
 **                                                                           **
 **                                MOPAC2012                                  **
 **                                                                           **
 *******************************************************************************

                            PM7 CALCULATION RESULTS


 *******************************************************************************
 *  CALCULATION DONE:                                Thu May 21 21:17:54 2015  *
 *  PM7        - The PM7 Hamiltonian to be used
 *  1SCF       - DO 1 SCF AND THEN STOP 
 *  T=         - A TIME OF 172800.0 SECONDS REQUESTED
 *  DUMP=N     - RESTART FILE WRITTEN EVERY  7200.000 SECONDS
 *  AUX        - OUTPUT AUXILIARY INFORMATION
 *******************************************************************************
PM7 AUX 1SCF

 Divinylbenzene, single point calculation, PM7/(default restricted basis)
   ATOM   CHEMICAL          X               Y               Z
  NUMBER   SYMBOL      (ANGSTROMS)     (ANGSTROMS)     (ANGSTROMS)
 
     1       C          0.27867948  *  -1.36683162  *   0.00000000  *
     2       C          1.32303041  *  -0.44173575  *   0.00000000  *
     3       C          1.04434506  *   0.92484978  *   0.00000000  *
     4       C         -0.27867948  *   1.36683162  *   0.00000000  *
     5       C         -1.32303041  *   0.44173575  *   0.00000000  *
     6       C         -1.04434506  *  -0.92484978  *   0.00000000  *
     7       H          2.36595443  *  -0.79037726  *   0.00000000  *
     8       H          1.86746094  *   1.65407997  *   0.00000000  *
     9       H         -2.36595443  *   0.79037726  *   0.00000000  *
    10       H         -1.86746094  *  -1.65407997  *   0.00000000  *
    11       C         -0.58659169  *   2.87589931  *   0.00000000  *
    12       C          0.36350188  *   3.80076420  *   0.00000000  *
    13       H         -1.65647768  *   3.12394312  *   0.00000000  *
    14       H          0.14429560  *   4.87693235  *   0.00000000  *
    15       H          1.43338788  *   3.55272039  *   0.00000000  *
    16       C          0.58659169  *  -2.87589931  *   0.00000000  *
    17       C         -0.36350188  *  -3.80076420  *   0.00000000  *
    18       H          1.65647768  *  -3.12394312  *   0.00000000  *
    19       H         -0.14429560  *  -4.87693235  *   0.00000000  *
    20       H         -1.43338788  *  -3.55272039  *   0.00000000  *
 


          CARTESIAN COORDINATES 

    NO.       ATOM         X         Y         Z

     1         C        0.2787   -1.3668    0.0000
     2         C        1.3230   -0.4417    0.0000
     3         C        1.0443    0.9248    0.0000
     4         C       -0.2787    1.3668    0.0000
     5         C       -1.3230    0.4417    0.0000
     6         C       -1.0443   -0.9248    0.0000
     7         H        2.3660   -0.7904    0.0000
     8         H        1.8675    1.6541    0.0000
     9         H       -2.3660    0.7904    0.0000
    10         H       -1.8675   -1.6541    0.0000
    11         C       -0.5866    2.8759    0.0000
    12         C        0.3635    3.8008    0.0000
    13         H       -1.6565    3.1239    0.0000
    14         H        0.1443    4.8769    0.0000
    15         H        1.4334    3.5527    0.0000
    16         C        0.5866   -2.8759    0.0000
    17         C       -0.3635   -3.8008    0.0000
    18         H        1.6565   -3.1239    0.0000
    19         H       -0.1443   -4.8769    0.0000
    20         H       -1.4334   -3.5527    0.0000

     ===================== shared-memory parallel CPU Section ======================
     **                                                                           **
     **  MOPAC calculations will run in shared-memory parallel CPUs               **
     **                                                                           **
     **  Number of Threads =  2                                                   **
     **                                                                           **
     **                                                                           **
     **  For information on this work, see:                                       **
     **                                                                           **
     **  Maia, J.D.C., et al., J. Chem. Theory Comput. 2012, 8, 3072-3081.        **
     **        DOI: 10.1021/ct3004645.                                            **
     **                                                                           **
     ===================== shared-memory parallel CPU Section ======================
      


 General Reference for PM7:
 "Optimization of Parameters for Semiempirical Methods VI: More Modifications to the 
 NDDO Approximations and Re-optimization of Parameters", J. J. P. Stewart, J. Mol. Mod., 1:32, 19 (2013)
 http://www.springerlink.com/openurl.asp?genre=article&id=doi:10.1007/s00894-012-1667-x

           Empirical Formula: C10 H10  =    20 atoms



      MOLECULAR POINT GROUP   :   C2h 


      RHF CALCULATION, NO. OF DOUBLY OCCUPIED LEVELS =   25


 -------------------------------------------------------------------------------
PM7 AUX 1SCF

 Divinylbenzene, single point calculation, PM7/(default restricted basis)


     1SCF WAS SPECIFIED, SO BFGS WAS NOT USED                 
     SCF FIELD WAS ACHIEVED                                   


                              PM7 CALCULATION
                                                       MOPAC2012 (Version: 15.089M)
                                                       Thu May 21 21:17:54 2015
                                                       No. of days left = 313




          FINAL HEAT OF FORMATION =         57.07513 KCAL/MOL =     238.80235 KJ/MOL


          TOTAL ENERGY            =      -1361.72031 EV
          ELECTRONIC ENERGY       =      -6897.42858 EV  POINT GROUP:     C2h 
          CORE-CORE REPULSION     =       5535.70827 EV
          COSMO AREA              =        184.20 SQUARE ANGSTROMS
          COSMO VOLUME            =        182.04 CUBIC ANGSTROMS

          IONIZATION POTENTIAL    =          9.046905 EV
          HOMO LUMO ENERGIES (EV) =         -9.047 -0.322
          NO. OF FILLED LEVELS    =         25
          MOLECULAR WEIGHT        =        130.189

          MOLECULAR DIMENSIONS (Angstroms)

            Atom       Atom       Distance
            H    19    H    14     9.75813
            H     9    H     7     4.77659
            C     1    C     2     0.00000


          SCF CALCULATIONS        =          1
 
          WALL-CLOCK TIME         =          0.016 SECONDS
          COMPUTATION TIME        =          0.019 SECONDS




   ATOM   CHEMICAL          X               Y               Z
  NUMBER   SYMBOL      (ANGSTROMS)     (ANGSTROMS)     (ANGSTROMS)
 
     1       C          0.27867948  *  -1.36683162  *   0.00000000  *
     2       C          1.32303041  *  -0.44173575  *   0.00000000  *
     3       C          1.04434506  *   0.92484978  *   0.00000000  *
     4       C         -0.27867948  *   1.36683162  *   0.00000000  *
     5       C         -1.32303041  *   0.44173575  *   0.00000000  *
     6       C         -1.04434506  *  -0.92484978  *   0.00000000  *
     7       H          2.36595443  *  -0.79037726  *   0.00000000  *
     8       H          1.86746094  *   1.65407997  *   0.00000000  *
     9       H         -2.36595443  *   0.79037726  *   0.00000000  *
    10       H         -1.86746094  *  -1.65407997  *   0.00000000  *
    11       C         -0.58659169  *   2.87589931  *   0.00000000  *
    12       C          0.36350188  *   3.80076420  *   0.00000000  *
    13       H         -1.65647768  *   3.12394312  *   0.00000000  *
    14       H          0.14429560  *   4.87693235  *   0.00000000  *
    15       H          1.43338788  *   3.55272039  *   0.00000000  *
    16       C          0.58659169  *  -2.87589931  *   0.00000000  *
    17       C         -0.36350188  *  -3.80076420  *   0.00000000  *
    18       H          1.65647768  *  -3.12394312  *   0.00000000  *
    19       H         -0.14429560  *  -4.87693235  *   0.00000000  *
    20       H         -1.43338788  *  -3.55272039  *   0.00000000  *

                             CARTESIAN COORDINATES

   1    C        0.278679480    -1.366831620     0.000000000
   2    C        1.323030410    -0.441735750     0.000000000
   3    C        1.044345060     0.924849780     0.000000000
   4    C       -0.278679480     1.366831620     0.000000000
   5    C       -1.323030410     0.441735750     0.000000000
   6    C       -1.044345060    -0.924849780     0.000000000
   7    H        2.365954430    -0.790377260     0.000000000
   8    H        1.867460940     1.654079970     0.000000000
   9    H       -2.365954430     0.790377260     0.000000000
  10    H       -1.867460940    -1.654079970     0.000000000
  11    C       -0.586591690     2.875899310     0.000000000
  12    C        0.363501880     3.800764200     0.000000000
  13    H       -1.656477680     3.123943120     0.000000000
  14    H        0.144295600     4.876932350     0.000000000
  15    H        1.433387880     3.552720390     0.000000000
  16    C        0.586591690    -2.875899310     0.000000000
  17    C       -0.363501880    -3.800764200     0.000000000
  18    H        1.656477680    -3.123943120     0.000000000
  19    H       -0.144295600    -4.876932350     0.000000000
  20    H       -1.433387880    -3.552720390     0.000000000


           Empirical Formula: C10 H10  =    20 atoms



      MOLECULAR POINT GROUP   :   C2h 


                  EIGENVALUES  
 -30.56286 -28.04964 -26.84559 -25.93966 -24.33608 -21.97739 -20.83311 -19.52363
 -18.95925 -17.22852 -16.43390 -15.12920 -15.02640 -14.87964 -14.16737 -13.79494
 -13.77434 -13.21694 -12.06731 -11.85979 -11.70424 -11.54137 -10.64673  -9.87144
  -9.04691  -0.32206   0.20170   0.89257   1.59380   2.74918   3.55810   3.96374
   4.27599   4.90945   4.95558   5.16273   5.20169   5.47860   5.52203   5.68544
   5.73456   5.83844   5.91605   5.97331   6.04610   6.19118   6.21319   6.26321
   6.43435   6.48133


              NET ATOMIC CHARGES AND DIPOLE CONTRIBUTIONS

  ATOM NO.   TYPE          CHARGE      No. of ELECS.   s-Pop       p-Pop       
    1          C          -0.009034        4.0090     1.07747     2.93156
    2          C          -0.160550        4.1605     1.08625     3.07430
    3          C          -0.154486        4.1545     1.08616     3.06832
    4          C          -0.009034        4.0090     1.07747     2.93156
    5          C          -0.160550        4.1605     1.08625     3.07430
    6          C          -0.154486        4.1545     1.08616     3.06832
    7          H           0.154970        0.8450     0.84503
    8          H           0.156530        0.8435     0.84347
    9          H           0.154970        0.8450     0.84503
   10          H           0.156530        0.8435     0.84347
   11          C          -0.125109        4.1251     1.09962     3.02549
   12          C          -0.309494        4.3095     1.10166     3.20783
   13          H           0.147526        0.8525     0.85247
   14          H           0.150285        0.8497     0.84971
   15          H           0.149360        0.8506     0.85064
   16          C          -0.125109        4.1251     1.09962     3.02549
   17          C          -0.309494        4.3095     1.10166     3.20783
   18          H           0.147526        0.8525     0.85247
   19          H           0.150285        0.8497     0.84971
   20          H           0.149360        0.8506     0.85064
 DIPOLE           X         Y         Z       TOTAL
 POINT-CHG.    -0.000     0.000     0.000     0.000
 HYBRID         0.000     0.000    -0.000     0.000
 SUM            0.000     0.000    -0.000     0.000


          ATOMIC ORBITAL ELECTRON POPULATIONS

     Atom    s        px        py        pz   
    1  C   1.07747   0.97966   0.96583   0.98607
    2  C   1.08625   1.07078   0.99515   1.00837
    3  C   1.08616   1.04053   1.02449   1.00331
    4  C   1.07747   0.97966   0.96583   0.98607
    5  C   1.08625   1.07078   0.99515   1.00837
    6  C   1.08616   1.04053   1.02449   1.00331
    7  H   0.84503
    8  H   0.84347
    9  H   0.84503
   10  H   0.84347
   11  C   1.09962   1.07369   0.96886   0.98294
   12  C   1.10166   1.09581   1.09270   1.01931
   13  H   0.85247
   14  H   0.84971
   15  H   0.85064
   16  C   1.09962   1.07369   0.96886   0.98294
   17  C   1.10166   1.09581   1.09270   1.01931
   18  H   0.85247
   19  H   0.84971
   20  H   0.85064

          JOB ENDED NORMALLY



 TOTAL JOB TIME:             0.02 SECONDS

 == MOPAC DONE ==
