 *******************************************************************************
 ** Site#: 22060        For non-commercial use only     Version 15.089M 64BITS**
 *******************************************************************************
 ** Cite this work as:                                                        **
 **                                                                           **
 ** (a) MOPAC2012, James J. P. Stewart, Stewart Computational Chemistry,      **
 **  Version 15.089M web: HTTP://OpenMOPAC.net         Days remaining: 313    **
 **                                                                           **
 **                                 AND                                       **
 **                                                                           **
 ** (b) Maia, J.D.C., et al., J. Chem. Theory Comput. 2012, 8, 3072-3081.     **
 **                DOI: 10.1021/ct3004645.                                    **
 *******************************************************************************
 **                                                                           **
 **                                MOPAC2012                                  **
 **                                                                           **
 *******************************************************************************

                            PM7 CALCULATION RESULTS


 *******************************************************************************
 *  CALCULATION DONE:                                Thu May 21 20:59:06 2015  *
 *  PM7        - The PM7 Hamiltonian to be used
 *  T=         - A TIME OF 172800.0 SECONDS REQUESTED
 *  DUMP=N     - RESTART FILE WRITTEN EVERY  7200.000 SECONDS
 *  AUX        - OUTPUT AUXILIARY INFORMATION
 *******************************************************************************
PM7 AUX

 Divinylbenzene, geometry optimization, PM7/(default restricted basis)
   ATOM   CHEMICAL          X               Y               Z
  NUMBER   SYMBOL      (ANGSTROMS)     (ANGSTROMS)     (ANGSTROMS)
 
     1       C          0.27867948  *  -1.36683162  *   0.00000000  *
     2       C          1.32303041  *  -0.44173575  *   0.00000000  *
     3       C          1.04434506  *   0.92484978  *   0.00000000  *
     4       C         -0.27867948  *   1.36683162  *   0.00000000  *
     5       C         -1.32303041  *   0.44173575  *   0.00000000  *
     6       C         -1.04434506  *  -0.92484978  *   0.00000000  *
     7       H          2.36595443  *  -0.79037726  *   0.00000000  *
     8       H          1.86746094  *   1.65407997  *   0.00000000  *
     9       H         -2.36595443  *   0.79037726  *   0.00000000  *
    10       H         -1.86746094  *  -1.65407997  *   0.00000000  *
    11       C         -0.58659169  *   2.87589931  *   0.00000000  *
    12       C          0.36350188  *   3.80076420  *   0.00000000  *
    13       H         -1.65647768  *   3.12394312  *   0.00000000  *
    14       H          0.14429560  *   4.87693235  *   0.00000000  *
    15       H          1.43338788  *   3.55272039  *   0.00000000  *
    16       C          0.58659169  *  -2.87589931  *   0.00000000  *
    17       C         -0.36350188  *  -3.80076420  *   0.00000000  *
    18       H          1.65647768  *  -3.12394312  *   0.00000000  *
    19       H         -0.14429560  *  -4.87693235  *   0.00000000  *
    20       H         -1.43338788  *  -3.55272039  *   0.00000000  *
 


          CARTESIAN COORDINATES 

    NO.       ATOM         X         Y         Z

     1         C        0.2787   -1.3668    0.0000
     2         C        1.3230   -0.4417    0.0000
     3         C        1.0443    0.9248    0.0000
     4         C       -0.2787    1.3668    0.0000
     5         C       -1.3230    0.4417    0.0000
     6         C       -1.0443   -0.9248    0.0000
     7         H        2.3660   -0.7904    0.0000
     8         H        1.8675    1.6541    0.0000
     9         H       -2.3660    0.7904    0.0000
    10         H       -1.8675   -1.6541    0.0000
    11         C       -0.5866    2.8759    0.0000
    12         C        0.3635    3.8008    0.0000
    13         H       -1.6565    3.1239    0.0000
    14         H        0.1443    4.8769    0.0000
    15         H        1.4334    3.5527    0.0000
    16         C        0.5866   -2.8759    0.0000
    17         C       -0.3635   -3.8008    0.0000
    18         H        1.6565   -3.1239    0.0000
    19         H       -0.1443   -4.8769    0.0000
    20         H       -1.4334   -3.5527    0.0000

     ===================== shared-memory parallel CPU Section ======================
     **                                                                           **
     **  MOPAC calculations will run in shared-memory parallel CPUs               **
     **                                                                           **
     **  Number of Threads =  2                                                   **
     **                                                                           **
     **                                                                           **
     **  For information on this work, see:                                       **
     **                                                                           **
     **  Maia, J.D.C., et al., J. Chem. Theory Comput. 2012, 8, 3072-3081.        **
     **        DOI: 10.1021/ct3004645.                                            **
     **                                                                           **
     ===================== shared-memory parallel CPU Section ======================
      


 General Reference for PM7:
 "Optimization of Parameters for Semiempirical Methods VI: More Modifications to the 
 NDDO Approximations and Re-optimization of Parameters", J. J. P. Stewart, J. Mol. Mod., 1:32, 19 (2013)
 http://www.springerlink.com/openurl.asp?genre=article&id=doi:10.1007/s00894-012-1667-x

           Empirical Formula: C10 H10  =    20 atoms



      MOLECULAR POINT GROUP   :   C2h 


      RHF CALCULATION, NO. OF DOUBLY OCCUPIED LEVELS =   25

      Geometry optimization using EF

          DIAGONAL MATRIX USED AS START HESSIAN

 CYCLE:     1 TIME:   0.008 TIME LEFT:  2.00D  GRAD.:   114.102 HEAT:  57.07513
 CYCLE:     2 TIME:   0.000 TIME LEFT:  2.00D  GRAD.:   130.616 HEAT:  55.78464
 CYCLE:     3 TIME:   0.008 TIME LEFT:  2.00D  GRAD.:    84.199 HEAT:  53.35519
 CYCLE:     4 TIME:   0.008 TIME LEFT:  2.00D  GRAD.:    34.025 HEAT:  52.11981
 CYCLE:     5 TIME:   0.000 TIME LEFT:  2.00D  GRAD.:    27.765 HEAT:  51.87107
 CYCLE:     6 TIME:   0.008 TIME LEFT:  2.00D  GRAD.:    27.851 HEAT:  51.80835
 CYCLE:     7 TIME:   0.008 TIME LEFT:  2.00D  GRAD.:    16.558 HEAT:  51.66376
 CYCLE:     8 TIME:   0.000 TIME LEFT:  2.00D  GRAD.:    18.368 HEAT:  51.61054
 CYCLE:     9 TIME:   0.008 TIME LEFT:  2.00D  GRAD.:     7.646 HEAT:  51.52400
 CYCLE:    10 TIME:   0.000 TIME LEFT:  2.00D  GRAD.:     8.312 HEAT:  51.46419
 CYCLE:    11 TIME:   0.008 TIME LEFT:  2.00D  GRAD.:    13.481 HEAT:  51.43699
 CYCLE:    12 TIME:   0.008 TIME LEFT:  2.00D  GRAD.:    10.534 HEAT:  51.40190
 CYCLE:    13 TIME:   0.000 TIME LEFT:  2.00D  GRAD.:     6.566 HEAT:  51.37486
 CYCLE:    14 TIME:   0.000 TIME LEFT:  2.00D  GRAD.:    12.361 HEAT:  51.37156
 CYCLE:    15 TIME:   0.008 TIME LEFT:  2.00D  GRAD.:     5.192 HEAT:  51.32971
 CYCLE:    16 TIME:   0.000 TIME LEFT:  2.00D  GRAD.:     6.689 HEAT:  51.30662
 CYCLE:    17 TIME:   0.008 TIME LEFT:  2.00D  GRAD.:    11.635 HEAT:  51.29912
 CYCLE:    18 TIME:   0.000 TIME LEFT:  2.00D  GRAD.:     3.239 HEAT:  51.26875
 CYCLE:    19 TIME:   0.008 TIME LEFT:  2.00D  GRAD.:     2.337 HEAT:  51.26103
 CYCLE:    20 TIME:   0.000 TIME LEFT:  2.00D  GRAD.:     3.022 HEAT:  51.25506
 CYCLE:    21 TIME:   0.008 TIME LEFT:  2.00D  GRAD.:     2.968 HEAT:  51.24962
 CYCLE:    22 TIME:   0.000 TIME LEFT:  2.00D  GRAD.:     1.516 HEAT:  51.24719
 CYCLE:    23 TIME:   0.008 TIME LEFT:  2.00D  GRAD.:     0.938 HEAT:  51.24643

     GRADIENT =  0.93804  IS LESS THAN CUTOFF =  1.00000



 -------------------------------------------------------------------------------
PM7 AUX

 Divinylbenzene, geometry optimization, PM7/(default restricted basis)


     GEOMETRY OPTIMISED USING EIGENVECTOR FOLLOWING (EF).     
     SCF FIELD WAS ACHIEVED                                   


                              PM7 CALCULATION
                                                       MOPAC2012 (Version: 15.089M)
                                                       Thu May 21 20:59:07 2015
                                                       No. of days left = 313




          FINAL HEAT OF FORMATION =         51.24643 KCAL/MOL =     214.41505 KJ/MOL


          TOTAL ENERGY            =      -1361.97377 EV
          ELECTRONIC ENERGY       =      -6929.07308 EV  POINT GROUP:     C2h 
          CORE-CORE REPULSION     =       5567.09931 EV
          COSMO AREA              =        184.03 SQUARE ANGSTROMS
          COSMO VOLUME            =        181.46 CUBIC ANGSTROMS

          GRADIENT NORM           =          0.93804
          IONIZATION POTENTIAL    =          8.879896 EV
          HOMO LUMO ENERGIES (EV) =         -8.880 -0.558
          NO. OF FILLED LEVELS    =         25
          MOLECULAR WEIGHT        =        130.189

          MOLECULAR DIMENSIONS (Angstroms)

            Atom       Atom       Distance
            H    19    H    14     9.68405
            H     9    H     7     4.70489
            C     4    C    11     0.00084


          SCF CALCULATIONS        =         27
 
          WALL-CLOCK TIME         =          0.117 SECONDS
          COMPUTATION TIME        =          0.221 SECONDS




   ATOM   CHEMICAL          X               Y               Z
  NUMBER   SYMBOL      (ANGSTROMS)     (ANGSTROMS)     (ANGSTROMS)
 
     1       C          0.25360585  *  -1.38531125  *   0.00029844  *
     2       C          1.31005631  *  -0.46465214  *  -0.00005071  *
     3       C          1.05993461  *   0.90271517  *  -0.00021099  *
     4       C         -0.25381074  *   1.38530435  *   0.00045311  *
     5       C         -1.30984803  *   0.46473807  *  -0.00021734  *
     6       C         -1.05967818  *  -0.90272652  *  -0.00007659  *
     7       H          2.33870141  *  -0.82146565  *   0.00000066  *
     8       H          1.89684403  *   1.59967193  *   0.00004728  *
     9       H         -2.33863923  *   0.82149472  *   0.00003008  *
    10       H         -1.89671599  *  -1.59968477  *  -0.00004387  *
    11       C         -0.56257416  *   2.81433178  *  -0.00038022  *
    12       C          0.34550661  *   3.79441609  *   0.00025570  *
    13       H         -1.63125734  *   3.05336892  *   0.00005310  *
    14       H          0.08309953  *   4.84130028  *  -0.00000131  *
    15       H          1.41246108  *   3.63570630  *  -0.00001518  *
    16       C          0.56255578  *  -2.81440147  *  -0.00036379  *
    17       C         -0.34566564  *  -3.79435067  *   0.00026993  *
    18       H          1.63114220  *  -3.05365681  *  -0.00001908  *
    19       H         -0.08334314  *  -4.84131427  *  -0.00004547  *
    20       H         -1.41257707  *  -3.63563956  *   0.00007133  *

                             CARTESIAN COORDINATES

   1    C        0.253605849    -1.385311254     0.000298441
   2    C        1.310056307    -0.464652138    -0.000050709
   3    C        1.059934614     0.902715169    -0.000210992
   4    C       -0.253810736     1.385304354     0.000453108
   5    C       -1.309848026     0.464738074    -0.000217339
   6    C       -1.059678176    -0.902726523    -0.000076590
   7    H        2.338701412    -0.821465647     0.000000662
   8    H        1.896844033     1.599671927     0.000047281
   9    H       -2.338639234     0.821494716     0.000030080
  10    H       -1.896715994    -1.599684768    -0.000043867
  11    C       -0.562574163     2.814331780    -0.000380217
  12    C        0.345506612     3.794416093     0.000255704
  13    H       -1.631257338     3.053368923     0.000053102
  14    H        0.083099527     4.841300279    -0.000001315
  15    H        1.412461081     3.635706301    -0.000015182
  16    C        0.562555783    -2.814401467    -0.000363795
  17    C       -0.345665641    -3.794350673     0.000269927
  18    H        1.631142199    -3.053656811    -0.000019083
  19    H       -0.083343141    -4.841314270    -0.000045470
  20    H       -1.412577075    -3.635639564     0.000071327


           Empirical Formula: C10 H10  =    20 atoms



      MOLECULAR POINT GROUP   :   C2h 


                  EIGENVALUES  
 -30.74606 -28.46961 -27.04520 -26.08743 -24.50565 -22.37383 -21.02512 -19.68950
 -19.11841 -17.21051 -16.63638 -15.33535 -15.00896 -14.93539 -14.22408 -13.89451
 -13.71840 -13.21978 -12.20313 -11.94517 -11.92140 -11.66931 -10.59273  -9.90858
  -8.87990  -0.55788   0.22015   0.78477   1.65822   2.76093   3.87088   4.19129
   4.38087   4.79159   5.07678   5.11806   5.20560   5.55487   5.57224   5.69869
   5.76080   5.88873   5.97694   6.05918   6.11700   6.22651   6.26263   6.28388
   6.47802   6.51054


              NET ATOMIC CHARGES AND DIPOLE CONTRIBUTIONS

  ATOM NO.   TYPE          CHARGE      No. of ELECS.   s-Pop       p-Pop       
    1          C          -0.007612        4.0076     1.06408     2.94353
    2          C          -0.158333        4.1583     1.08585     3.07249
    3          C          -0.148684        4.1487     1.08419     3.06450
    4          C          -0.007635        4.0076     1.06407     2.94356
    5          C          -0.158338        4.1583     1.08580     3.07254
    6          C          -0.148750        4.1488     1.08412     3.06463
    7          H           0.152460        0.8475     0.84754
    8          H           0.154324        0.8457     0.84568
    9          H           0.152480        0.8475     0.84752
   10          H           0.154351        0.8456     0.84565
   11          C          -0.133515        4.1335     1.08510     3.04841
   12          C          -0.298540        4.2985     1.09652     3.20202
   13          H           0.148487        0.8515     0.85151
   14          H           0.145835        0.8542     0.85417
   15          H           0.145599        0.8544     0.85440
   16          C          -0.133477        4.1335     1.08512     3.04835
   17          C          -0.298579        4.2986     1.09652     3.20206
   18          H           0.148492        0.8515     0.85151
   19          H           0.145837        0.8542     0.85416
   20          H           0.145597        0.8544     0.85440
 DIPOLE           X         Y         Z       TOTAL
 POINT-CHG.    -0.000    -0.000     0.000     0.000
 HYBRID         0.000    -0.000     0.000     0.000
 SUM           -0.000    -0.000     0.000     0.000


          ATOMIC ORBITAL ELECTRON POPULATIONS

     Atom    s        px        py        pz   
    1  C   1.06408   0.98181   0.97171   0.99001
    2  C   1.08585   1.06878   0.99741   1.00629
    3  C   1.08419   1.04091   1.02342   1.00016
    4  C   1.06407   0.98180   0.97173   0.99003
    5  C   1.08580   1.06884   0.99740   1.00630
    6  C   1.08412   1.04099   1.02342   1.00022
    7  H   0.84754
    8  H   0.84568
    9  H   0.84752
   10  H   0.84565
   11  C   1.08510   1.08184   0.97708   0.98950
   12  C   1.09652   1.10104   1.08698   1.01400
   13  H   0.85151
   14  H   0.85417
   15  H   0.85440
   16  C   1.08512   1.08181   0.97706   0.98948
   17  C   1.09652   1.10103   1.08701   1.01402
   18  H   0.85151
   19  H   0.85416
   20  H   0.85440

          JOB ENDED NORMALLY



 TOTAL JOB TIME:             0.12 SECONDS

 == MOPAC DONE ==
